270
 i =      242, E =     -1311.0338526774
 Au        16.3780061009       16.4538409536       18.5663440215
 Au        18.3464719739       14.4686920664       17.1312968024
 Au        18.8161870802       17.4174504871       17.6914399415
 Au        16.4167062488       17.9119660373       16.1012046048
 Au        15.6001309927       13.0713401689       18.4618107890
 Au        15.9369461804       15.0186814729       15.9262884977
 Au        18.3720249343       16.0744223528       14.8897351602
 Au        19.1947566702       15.5038643070       20.2243095904
 Au        13.3102951071       16.9724581050       17.0396677719
 Au        21.3028354803       15.6658105482       16.0344899996
 Au        15.3372961266       19.2408637110       18.4471347635
 Au        17.7757184284       20.1868432646       17.5151743519
 Au        19.2823930850       19.3830902221       14.5318636328
 Au        15.2941238426       21.2643634037       16.0712388899
 Au        17.6485832049       18.7525745904       19.9909164750
 Au        16.5850346809       12.1818108671       15.1582206975
 Au        19.4614801873       13.4297295026       13.9404898859
 Au        16.1205987038       21.9500073003       19.3881098614
  S        15.4998924728       19.5361550604       14.4818103558
  S        15.4009888201       14.7879134351       20.0537977638
  S        13.5549058517       15.2471432591       15.4523426809
  S        19.2960830075       13.4297195792       19.1032613944
  S        21.2032721599       17.6980280629       17.2133254866
  S        12.9899633924       18.6886045599       18.6312473774
  S        19.7033529299       17.4148470039       13.3317990337
  S        19.0841332660       21.3492279671       15.8227718314
  S        19.2344483039       17.4951707205       21.4705475338
  S        15.7633481755       11.1463949637       17.1049990763
  S        21.6723662557       13.7488274796       14.6958760159
  S        15.1734962983       23.1154275225       17.5507513571
  S        16.8004072527       20.7761025817       21.3112231370
  S        17.3325763530       12.9282520587       13.0430462140
  C        13.5814974901       15.0810281170       20.2883446453
  H        13.1824719669       15.4245991467       19.3208395600
  C        13.3973167316       16.1825176602       21.3413309505
  H        13.9065863410       15.8746467865       22.2678284590
  H        13.8815065927       17.1099860546       21.0026699358
  C        11.9040232684       16.4288610827       21.6248342978
  H        11.8010505606       17.1984350702       22.4039874120
  H        11.4331077828       16.8424855779       20.7208926146
  C        11.1859415631       15.1367835813       22.0419651747
  H        11.5795160335       14.7959286520       23.0113158198
  H        10.1130202289       15.3270923881       22.1936119942
  C        11.3884341180       14.0299311995       20.9956231314
  H        10.8862036981       14.3159942621       20.0589299791
  H        10.9156675867       13.0930480760       21.3254846424
  C        12.8826789723       13.7832340383       20.7148882114
  H        13.3731631878       13.3950921208       21.6206901098
  H        13.0156121505       13.0177655630       19.9351129006
  C        12.6577144608       13.7674841928       16.1316669599
  H        13.1945473682       13.4600378155       17.0426083006
  C        11.2046247176       14.1189290695       16.4750384678
  H        10.7132188456       14.5239472728       15.5771471477
  H        11.1854160882       14.9189794015       17.2309668666
  C        10.4442777896       12.8743540571       16.9711776205
  H        10.8793343592       12.5419780819       17.9259674206
  H         9.3988331987       13.1412732028       17.1852039506
  C        10.5112492798       11.7260094403       15.9521147037
  H         9.9632973430       12.0155287923       15.0429470398
  H        10.0034920921       10.8341559129       16.3485091807
  C        11.9659903888       11.3947470343       15.5851605558
  H        12.0017832043       10.6123440320       14.8128800462
  H        12.4870252886       10.9838156505       16.4626432309
  C        12.7202641586       12.6423885560       15.0902128037
  H        13.7711295015       12.3948933325       14.8674759132
  H        12.2723135449       13.0037394997       14.1519759878
  C        17.2154083269       10.2267023229       17.8176175548
  H        18.0410501136       10.9460564990       17.8914596480
  C        17.5999218015        9.0749319742       16.8794111480
  H        17.8813579839        9.4795128682       15.8953252931
  H        16.7197149138        8.4338961166       16.7190741032
  C        18.7500563079        8.2416864099       17.4759101874
  H        19.6582893852        8.8612367601       17.5247104224
  H        18.9850100879        7.4028936604       16.8042832899
  C        18.4053732877        7.7282521071       18.8825246786
  H        17.5730098941        7.0120510177       18.8148117860
  H        19.2565402778        7.1743659361       19.3056848267
  C        18.0061438596        8.8854092664       19.8109873467
  H        18.8737703539        9.5420780413       19.9755804518
  H        17.7156766381        8.5048834863       20.8011946534
  C        16.8523019013        9.7154922313       19.2182385831
  H        15.9438438823        9.0979177699       19.1517357770
  H        16.6124460192       10.5689727755       19.8698966828
  C        12.0424964335       20.0554297725       17.8028325084
  H        12.6304677177       20.3701580032       16.9277277341
  C        11.9220570978       21.2273928139       18.7861470645
  H        11.4343770675       20.8701918685       19.7058717455
  H        12.9243915283       21.5790896675       19.0751959892
  C        11.1010845739       22.3755387794       18.1712344611
  H        11.0051178899       23.1917417002       18.9021932908
  H        11.6515416613       22.7935730323       17.3152390359
  C         9.7162184303       21.8935114542       17.7126313740
  H         9.1265534611       21.5914734038       18.5910174666
  H         9.1625727643       22.7163131056       17.2364280324
  C         9.8351928762       20.7036999660       16.7473718696
  H        10.3140260391       21.0377267235       15.8143961935
  H         8.8389579189       20.3318153702       16.4659960773
  C        10.6617475799       19.5562511512       17.3587844985
  H        10.1348061044       19.1417867913       18.2318401563
  H        10.7796118059       18.7300081985       16.6413162601
  C        21.1038262204       13.1101116195       18.8101613892
  H        21.4892822679       13.9645012891       18.2315145749
  C        21.2539714225       11.8264733562       17.9835184936
  H        20.7390182935       11.9416623846       17.0179852936
  H        20.7553397908       11.0013861726       18.5166102354
  C        22.7384933551       11.4809534316       17.7643748693
  H        23.1956569649       12.2565108378       17.1322838067
  H        22.8177000419       10.5400912259       17.1999422715
  C        23.4984970941       11.3791515377       19.0953970631
  H        23.1171347979       10.5214993288       19.6696972469
  H        24.5646445981       11.1787696182       18.9121389461
  C        23.3315548227       12.6601679322       19.9273311578
  H        23.8228927057       13.4984886210       19.4103067908
  H        23.8361883169       12.5590755221       20.8995053388
  C        21.8460005279       13.0012174340       20.1485119017
  H        21.3703989374       12.2172006582       20.7576804554
  H        21.7363761128       13.9423903488       20.7082902417
  C        22.1614753646       17.4524188978       18.7864283046
  H        21.6332955968       16.6822687217       19.3688058449
  C        23.5941608774       16.9938870754       18.4865367973
  H        23.5697174536       16.0378634684       17.9414863000
  H        24.0707387151       17.7246911099       17.8151646735
  C        24.4111258155       16.8665980142       19.7862337212
  H        25.4408992771       16.5622606725       19.5476231645
  H        23.9858770963       16.0602416860       20.4028949564
  C        24.4070377508       18.1778495214       20.5878106017
  H        24.9457830747       18.9513265275       20.0201337069
  H        24.9560545687       18.0490842148       21.5324958752
  C        22.9727148377       18.6534293726       20.8639829303
  H        22.9799095202       19.6219601818       21.3863187876
  H        22.4655572646       17.9450841637       21.5354339189
  C        22.1569343320       18.7757420330       19.5641557696
  H        21.1217293481       19.0722709305       19.7879017762
  H        22.5882703731       19.5629616419       18.9257672262
  C        18.4390374736       17.0859333578       23.1007697309
  H        19.1108411565       16.3209631176       23.5173453451
  C        17.0278310667       16.5089043392       22.9903090200
  H        17.0359952031       15.6157010302       22.3495927408
  H        16.3871473839       17.2469370025       22.4824380883
  C        16.4582026337       16.1789696887       24.3822895497
  H        15.4304547707       15.7991982012       24.2784975734
  H        17.0423156380       15.3610286569       24.8304358948
  C        16.4901987910       17.3998648180       25.3149199410
  H        16.1238452145       17.1288216849       26.3162076371
  H        15.8046476309       18.1692980384       24.9301319355
  C        17.9076420859       17.9864356798       25.4061791174
  H        18.5734189574       17.2630301842       25.9000851727
  H        17.9131298466       18.8894136481       26.0344903654
  C        18.4639612901       18.3228352419       24.0091262539
  H        17.8401244871       19.1041664583       23.5496705170
  H        19.4860733988       18.7212649875       24.0822926953
  C        18.9300392826       17.5486328712       11.6494132739
  H        19.4349746536       18.4213869125       11.2089253063
  C        17.4212740999       17.7875655101       11.6557841095
  H        16.9384715415       16.9569129776       12.1947340869
  H        17.1887489602       18.7004708289       12.2224212826
  C        16.8769940263       17.8758425030       10.2180716652
  H        15.7864391638       18.0209327198       10.2429075471
  H        17.2930612917       18.7666543411        9.7236226475
  C        17.2328626911       16.6245621424        9.4007358481
  H        16.8699681232       16.7236284864        8.3669737755
  H        16.7155537701       15.7530896552        9.8300260378
  C        18.7481820903       16.3710990167        9.4109462789
  H        19.2568108760       17.1825784021        8.8690091859
  H        18.9879554595       15.4422067597        8.8720242765
  C        19.2992641366       16.2916111692       10.8471241318
  H        18.8816204452       15.4117334532       11.3621860656
  H        20.3912273222       16.1596335216       10.8334691412
  C        13.7677785327       19.0576764476       14.0114015904
  H        13.2852837743       18.6620467379       14.9200682448
  C        12.9951295305       20.2776441006       13.4922383775
  H        13.5527211880       20.7226980479       12.6539781788
  H        12.9453841100       21.0476122817       14.2776699272
  C        11.5829733306       19.8762927679       13.0255150090
  H        10.9988901926       19.5330798081       13.8930078420
  H        11.0600404881       20.7601069697       12.6312294140
  C        11.6307208079       18.7594949220       11.9713630355
  H        10.6110713367       18.4583811663       11.6885861846
  H        12.1047480617       19.1443368506       11.0559500124
  C        12.4235066531       17.5490733311       12.4863007740
  H        11.8913447992       17.0837248412       13.3292342804
  H        12.5002558741       16.7757649771       11.7078052967
  C        13.8348944438       17.9533390245       12.9487139923
  H        14.3728142969       17.0806801222       13.3458967106
  H        14.4145890093       18.3250593524       12.0901050695
  C        17.5893939569       11.3247114592       12.1025196361
  H        18.1736222631       10.6792913534       12.7676896945
  C        16.2301128630       10.6737506771       11.7973672249
  H        16.4364459030        9.6620889047       11.4108704212
  H        15.6624119226       10.5469529468       12.7311175071
  C        15.4140490870       11.4574996316       10.7575828131
  H        15.1183752587       12.4275912134       11.1826484730
  H        14.4806924093       10.9190324161       10.5377236381
  C        16.2217849049       11.6841706815        9.4687840010
  H        16.4117264999       10.7146771003        8.9834608119
  H        15.6377983240       12.2791703055        8.7512504398
  C        17.5632199904       12.3747778993        9.7656853364
  H        17.3761581181       13.3938237788       10.1353870823
  H        18.1528399734       12.4843822141        8.8436588656
  C        18.3775399183       11.5958004927       10.8103541064
  H        18.6602359438       10.6150547554       10.3936321370
  H        19.3153174341       12.1188356499       11.0501017703
  C        22.5656852118       14.4567385281       13.2238679559
  H        21.9776613848       15.3208186648       12.8873015245
  C        23.9653344084       14.9194062069       13.6503074515
  H        24.5035632843       14.0696875886       14.0969560870
  H        23.8758816494       15.6881075919       14.4325612549
  C        24.7528793209       15.4595940039       12.4417671420
  H        24.2645070034       16.3732383345       12.0717191593
  H        25.7619704068       15.7579260233       12.7619692927
  C        24.8298021462       14.4248520968       11.3085198907
  H        25.3570721485       14.8472314796       10.4401849608
  H        25.4251735757       13.5622029347       11.6425854250
  C        23.4278256075       13.9462336106       10.9004303191
  H        23.4944514079       13.1693193689       10.1246473204
  H        22.8720850999       14.7832820166       10.4512722498
  C        22.6407239578       13.4058325737       12.1089846777
  H        21.6229198012       13.1099916978       11.8120177450
  H        23.1315231508       12.5017919789       12.5002612924
  C        20.8146930781       21.6158364996       16.4500250024
  H        21.0927671847       20.7124330400       17.0080673977
  C        21.7765912879       21.8036232820       15.2685014179
  H        21.4191225774       22.6363860703       14.6440708113
  H        21.7589530875       20.9028858347       14.6364805120
  C        23.2047412900       22.0958306317       15.7652703742
  H        23.5894414145       21.2118064026       16.2956531455
  H        23.8708858240       22.2524062246       14.9041098347
  C        23.2401446665       23.3117398585       16.7037003527
  H        24.2603996643       23.4757392708       17.0811587045
  H        22.9701073463       24.2161890279       16.1384662724
  C        22.2605839251       23.1332981131       17.8736268075
  H        22.2533700480       24.0293232995       18.5121860422
  H        22.6005222758       22.3027079883       18.5112540521
  C        20.8325542117       22.8383074656       17.3764986753
  H        20.1522757862       22.6745784935       18.2241098530
  H        20.4477952085       23.7091596801       16.8229448864
  C        16.5261553711       24.2372073607       16.9397986676
  H        17.4238267057       23.6162624624       16.8225229293
  C        16.1285372300       24.8225167436       15.5782103285
  H        15.9798172167       24.0054991333       14.8563356673
  H        15.1637376996       25.3425683205       15.6765133068
  C        17.2040457655       25.8037995624       15.0755116069
  H        18.1326153904       25.2480410706       14.8772599948
  H        16.8903876414       26.2340036283       14.1130979343
  C        17.4782421730       26.9151468295       16.1004760353
  H        16.5802660632       27.5415384788       16.2079085961
  H        18.2774894457       27.5794909563       15.7395405148
  C        17.8529744726       26.3256378050       17.4691393388
  H        18.8171270368       25.8008164234       17.3890761496
  H        17.9979312828       27.1263676419       18.2091914477
  C        16.7811249195       25.3413448646       17.9745577273
  H        15.8404286377       25.8796968134       18.1654595137
  H        17.0855347276       24.8895820630       18.9310013896
  C        18.3052820267       21.6284962585       21.9663573068
  H        18.7508670354       20.8756170828       22.6341540729
  C        19.3375619149       22.0123268888       20.9048167720
  H        18.8543695682       22.6980548049       20.1891108239
  H        19.6297206926       21.1192672105       20.3320634626
  C        20.5621248653       22.6889530396       21.5455830194
  H        21.0871228734       21.9609990808       22.1829564596
  H        21.2761615644       22.9814864846       20.7613054005
  C        20.1557194087       23.9090436137       22.3874659002
  H        21.0386103684       24.3509046794       22.8727486862
  H        19.7451614159       24.6856601186       21.7250764825
  C        19.1014763713       23.5312959266       23.4395853262
  H        18.7771391007       24.4212202792       23.9991040009
  H        19.5505798249       22.8507470009       24.1783268268
  C        17.8785011054       22.8503332704       22.7959724279
  H        17.1512550281       22.5503991677       23.5636243413
  H        17.3588715035       23.5572413333       22.1309897236

