 404
 i =      289, E =     -1862.1375718529
 Au        18.6000004780       22.2842008224       18.5999917296
 Au        18.1749195323       21.4257332941       22.2408320941
 Au        15.0344578979       20.0810356053       19.3341770702
 Au        17.3627881146       19.9538932070       16.9254151205
 Au        18.6000041056       18.0591551898       18.5999964579
 Au        17.1948203922       15.6457035926       21.8137024414
 Au        19.7398303188       17.2262932671       21.0294411211
 Au        18.6000007404       15.0453694038       18.5999952636
 Au        18.5999977390       11.9269469132       18.5999957881
 Au        20.4755923028       13.7970607130       21.3254125369
 Au        18.4248819532       18.2044550383       23.9749733993
 Au        17.3779996674       18.7079007133       21.0699099629
  S        17.9925641454       15.8809099764       24.0294997033
  S        19.9288864664       11.6515591478       20.5321571048
  S        16.4254927800       15.3224665203       19.6041212145
  S        18.8464489103       20.5002182256       24.3095728239
  S        17.1353797142       22.5709472228       20.4463272615
  S        15.0560137121       20.7176979464       17.0723455230
  S        21.2142170105       15.8006035530       22.2989159420
  S        15.0658747222       19.3877034435       21.5858122469
  C        15.5582052496       13.7581188119       19.5545080631
  C        14.5534768270       13.6203264774       18.5872990429
  H        14.3274526597       14.4473315770       17.9160078168
  C        13.8352880561       12.4228148546       18.4839453191
  H        13.0726798056       12.3506232246       17.7130687317
  C        14.0861643820       11.3377755533       19.3366143617
  C        15.0853320376       11.5062185113       20.3143221792
  H        15.3198033514       10.6949781006       21.0014851456
  C        15.8167962687       12.6887754049       20.4243767572
  H        16.5883694382       12.7869158682       21.1861895539
  C        20.6208398070       20.7263134889       24.4501442680
  C        21.5623061159       19.8633912253       23.8826423808
  H        21.2286542145       19.0072734242       23.2977277060
  C        22.9293949007       20.1077759798       24.0521007081
  H        23.6298544355       19.4197081548       23.5857948565
  C        23.3980332312       21.2083286554       24.7860051790
  C        22.4320125288       22.0581718185       25.3569149545
  H        22.7482980097       22.9201357551       25.9414472924
  C        21.0653197531       21.8285974661       25.1982585959
  H        20.3402716790       22.4997695959       25.6537849587
  C        14.0609961743       17.9170191217       21.7307016902
  C        13.9080819373       17.3646235709       23.0135451342
  H        14.4353919926       17.8019711661       23.8590076140
  C        13.0892964209       16.2526076512       23.2056764747
  H        13.0034403453       15.8473415565       24.2124013995
  C        12.3934148237       15.6495172257       22.1412276359
  C        12.5660758991       16.2110423369       20.8673751070
  H        12.0632310092       15.7789648910       20.0064864771
  C        13.3854311523       17.3248397203       20.6581148432
  H        13.5075071488       17.7356822419       19.6569097220
  C        18.8537447055       10.8888335640       21.7465968737
  C        18.6070690506       11.4614118624       22.9996054217
  H        19.0188830804       12.4439134412       23.2303644148
  C        17.8352658075       10.7812030520       23.9500420237
  H        17.6687109310       11.2626118359       24.9103900298
  C        17.2838994883        9.5187463425       23.6887183242
  C        17.5459998792        8.9583049498       22.4228835458
  H        17.1430209976        7.9783794189       22.1723533877
  C        18.3148292768        9.6207132521       21.4675490671
  H        18.4958134260        9.1605158471       20.4980552090
  C        16.6287214764       15.6002619741       25.1562200058
  C        15.9651338773       14.3624037480       25.1227928604
  H        16.2054906508       13.6404855469       24.3442160200
  C        14.9974183568       14.0619864110       26.0803325312
  H        14.5030076611       13.0932259813       26.0269962622
  C        14.6482078682       14.9687910502       27.0998276795
  C        15.3158495719       16.2024133246       27.1082126505
  H        15.0826506135       16.9434155523       27.8681423837
  C        16.2923999201       16.5189548291       26.1566383099
  H        16.7990225589       17.4830223377       26.1894655770
  C        22.9141596145       16.0229000447       21.7744529299
  C        23.8965368540       15.1848402150       22.3214961196
  H        23.6028599102       14.3661193779       22.9753170918
  C        25.2479944820       15.4007994701       22.0345233412
  H        25.9801240018       14.7316576804       22.4785982734
  C        25.6684784029       16.4552806957       21.2072398707
  C        24.6655099758       17.2783037355       20.6630468472
  H        24.9349976000       18.1095604281       20.0128124575
  C        23.3114067662       17.0708916308       20.9330552248
  H        22.5570217892       17.7233398253       20.4947171172
  C        27.1464209144       16.7301420313       20.8916763066
  C        28.0900901417       15.7435214522       21.6060295501
  H        29.1320306590       15.9831770201       21.3554564210
  H        27.9076824192       14.7049865594       21.2974623151
  H        27.9911447044       15.8005674718       22.6987645199
  C        27.5105793135       18.1642253641       21.3470218449
  H        26.8989114692       18.9210592196       20.8387779322
  H        28.5640182207       18.3794089851       21.1207902783
  H        27.3620274031       18.2842610798       22.4288439341
  C        27.3787150846       16.6059687401       19.3666178434
  H        26.7573526564       17.3113224953       18.7993649563
  H        27.1433287694       15.5917070626       19.0154885640
  H        28.4294871072       16.8147981834       19.1221705118
  C        14.8571679711       22.4876419820       16.9624720502
  C        14.2649484960       23.2430336493       17.9819542307
  H        14.0090546362       22.7618041254       18.9247295610
  C        14.0009521354       24.6040337400       17.7891532687
  H        13.5401281686       25.1558092727       18.6039740645
  C        14.3188243620       25.2543934213       16.5876573906
  C        14.9270690952       24.4791128012       15.5815385238
  H        15.1996075531       24.9391373807       14.6333854105
  C        15.1932912356       23.1221558336       15.7540141962
  H        15.6554046836       22.5501411677       14.9510754192
  C        14.0283642409       26.7416035069       16.3386501416
  C        13.3789025536       27.4236128400       17.5579628003
  H        13.1955043338       28.4830444905       17.3348815925
  H        14.0250545414       27.3767430798       18.4459122507
  H        12.4125154052       26.9681256315       17.8140601923
  C        13.0637658940       26.8791886743       15.1351391991
  H        13.4873709446       26.4393036483       14.2227680744
  H        12.8532278763       27.9382864761       14.9313107479
  H        12.1095435004       26.3740496010       15.3375319233
  C        15.3507995963       27.4790459391       16.0177693770
  H        15.8470529854       27.0619767214       15.1316706719
  H        16.0564760293       27.4036165520       16.8567958752
  H        15.1581794386       28.5439016541       15.8260864968
  C        17.2372334930       24.3210320542       20.8349281888
  C        17.3069876474       24.7716534222       22.1588511907
  H        17.4072439929       24.0473143901       22.9665917590
  C        17.2513423352       26.1400367224       22.4451341209
  H        17.3097591834       26.4480969262       23.4855915222
  C        17.1236159139       27.1018710334       21.4316043704
  C        17.0583717238       26.6272425566       20.1078893703
  H        16.9627715666       27.3327940741       19.2839002158
  C        17.1100589374       25.2672276205       19.8043874406
  H        17.0489054815       24.9366601254       18.7688191247
  C        17.0408833616       28.6092717631       21.7138286014
  C        17.1709467076       28.9310047878       23.2150182501
  H        17.1118094779       30.0169826484       23.3664156584
  H        18.1325817338       28.5914050917       23.6238167485
  H        16.3650624628       28.4717743676       23.8037653613
  C        15.6743991684       29.1440005729       21.2193183101
  H        15.5392421981       28.9790004295       20.1420852498
  H        15.5961825183       30.2242211811       21.4052200012
  H        14.8456701248       28.6468379870       21.7413452474
  C        18.1773954278       29.3439306705       20.9626036265
  H        18.1142129122       29.1906753374       19.8769806181
  H        19.1628558883       28.9906741585       21.2958491620
  H        18.1205784622       30.4252189741       21.1492700725
  C        11.4992007760       14.4280681226       22.4006415973
  C        10.3944645736       14.8070209107       23.4169003973
  H         9.7486582491       13.9414576425       23.6202683022
  H         9.7645970003       15.6189198739       23.0285459352
  H        10.8183590307       15.1399453082       24.3735612877
  C        12.3581226106       13.2781849571       22.9804237202
  H        11.7292567972       12.4015611574       23.1902404321
  H        12.8486406054       13.5742952361       23.9170900518
  H        13.1409022651       12.9775072612       22.2700595418
  C        10.8180869716       13.9182289596       21.1159227791
  H        10.1898836948       13.0489997239       21.3528153454
  H        11.5542955129       13.6025214826       20.3633826600
  H        10.1682178076       14.6825575237       20.6677125692
  C        16.4267048370        8.7524411010       24.7065799074
  C        16.2653038051        9.5217247181       26.0316480277
  H        15.6477072142        8.9359562821       26.7253237076
  H        15.7696007212       10.4917137710       25.8852693013
  H        17.2321788634        9.7023168565       26.5209937490
  C        17.0917098399        7.3890612819       25.0161295569
  H        17.1987226874        6.7731197828       24.1137386276
  H        16.4851482228        6.8232613638       25.7367927415
  H        18.0922971780        7.5288159724       25.4471275272
  C        15.0179663824        8.5107493840       24.1116187863
  H        15.0626083285        7.9324263991       23.1794527540
  H        14.5147152119        9.4628855159       23.8931022816
  H        14.3934095429        7.9510245290       24.8216505341
  C        13.3380079221       10.0011803921       19.2282295647
  C        12.6177253036        9.6985329191       20.5642810158
  H        11.8830994655       10.4805184410       20.8011070224
  H        13.3238277578        9.6368554332       21.4030178280
  H        12.0870593360        8.7383058978       20.5021275217
  C        14.3588259657        8.8756382769       18.9290782404
  H        15.1108767078        8.7902147238       19.7246753201
  H        14.8896745335        9.0695699421       17.9869110956
  H        13.8462194531        7.9075746613       18.8436878912
  C        12.2854193161       10.0095947678       18.1031611058
  H        11.5152194869       10.7753649199       18.2694161354
  H        11.7799687091        9.0356096798       18.0632225446
  H        12.7409781975       10.1869462757       17.1193342129
  C        24.8915936464       21.5078491686       24.9798686775
  C        25.2083554412       22.9168526468       24.4215213458
  H        26.2759064340       23.1439956269       24.5477373774
  H        24.6386059391       23.6985858949       24.9407594128
  H        24.9659817558       22.9812424854       23.3517967587
  C        25.7892537359       20.4888234741       24.2529097699
  H        26.8442849099       20.7457905146       24.4160886708
  H        25.6113642887       20.4881464665       23.1688108390
  H        25.6355013782       19.4670658243       24.6262691803
  C        25.2296036434       21.4658589713       26.4900483038
  H        26.2931731862       21.6915926842       26.6492876796
  H        25.0243566421       20.4725647139       26.9118414778
  H        24.6432463066       22.1990269314       27.0592885754
  C        13.5808238256       14.5879560121       28.1362210529
  C        13.3548425755       15.7001221088       29.1783013575
  H        13.0027148798       16.6315139789       28.7140160357
  H        14.2696402894       15.9219038355       29.7448273707
  H        12.5895645713       15.3808639799       29.8981533520
  C        14.0267163327       13.3073815226       28.8835508684
  H        13.2703087271       13.0160005027       29.6253504232
  H        14.9766946678       13.4703771069       29.4102853592
  H        14.1648746633       12.4611664168       28.1977346344
  C        12.2372145606       14.3179852245       27.4166699823
  H        11.8851679066       15.2166205859       26.8912441956
  H        11.4662279968       14.0264117802       28.1433284307
  H        12.3232992671       13.5094813427       26.6788622212
 Au        19.0250786683       21.4257356617       14.9591631735
 Au        22.1655372979       20.0810509229       17.8658213242
 Au        19.8372110799       19.9538949318       20.2745777375
 Au        20.0051792906       15.6457004486       15.3862930128
 Au        17.4601647491       17.2262935709       16.1705545750
 Au        16.7244098983       13.7970664681       15.8745847191
 Au        18.7751143899       18.2044526936       13.2250204465
 Au        19.8219984824       18.7079033529       16.1300883903
  S        19.2074341058       15.8809094598       13.1704950857
  S        17.2711151275       11.6515619055       16.6678333125
  S        20.7745097989       15.3224660347       17.5958724325
  S        18.3535461453       20.5002193980       12.8904261092
  S        20.0646210569       22.5709538430       16.7536672528
  S        22.1439885476       20.7177006128       20.1276515771
  S        15.9857800999       15.8006027695       14.9010753496
  S        22.1341179118       19.3877053407       15.6141829741
  C        21.6417966972       13.7581187375       17.6454877240
  C        22.6465202347       13.6203272160       18.6126975047
  H        22.8725445580       14.4473331756       19.2839862714
  C        23.3647126242       12.4228172317       18.7160506910
  H        24.1273185110       12.3506226389       19.4869286592
  C        23.1138346988       11.3377762994       17.8633814509
  C        22.1146640698       11.5062160498       16.8856776878
  H        21.8801982283       10.6949790533       16.1985114986
  C        21.3832058637       12.6887752881       16.7756177610
  H        20.6116335846       12.7869191873       16.0138058471
  C        16.5791555114       20.7263131147       12.7498486714
  C        15.6376904659       19.8633962741       13.3173526392
  H        15.9713409293       19.0072759685       13.9022655579
  C        14.2705978124       20.1077822544       13.1478972208
  H        13.5701384240       19.4197127494       13.6141875523
  C        13.8019636565       21.2083353386       12.4139870672
  C        14.7679840260       22.0581777456       11.8430817174
  H        14.4516961070       22.9201390943       11.2585490085
  C        16.1346774506       21.8285991702       12.0017419143
  H        16.8597325765       22.4997670764       11.5462112755
  C        23.1390003062       17.9170263992       15.4692937696
  C        23.2919119857       17.3646217490       14.1864510904
  H        22.7646029670       17.8019715651       13.3409861963
  C        24.1106986037       16.2526056735       13.9943130599
  H        24.1965576494       15.8473367059       12.9875872093
  C        24.8065841991       15.6495292913       15.0587629189
  C        24.6339247506       16.2110432518       16.3326215653
  H        25.1367756787       15.7789577683       17.1935016471
  C        23.8145638572       17.3248407978       16.5418770749
  H        23.6924886711       17.7356947620       17.5430783377
  C        18.3462587322       10.8888372278       15.4533980635
  C        18.5929332938       11.4614093521       14.2003907370
  H        18.1811192665       12.4439114516       13.9696296761
  C        19.3647384897       10.7812082746       13.2499554152
  H        19.5312881544       11.2626204662       12.2896063451
  C        19.9160975343        9.5187468719       13.5112801979
  C        19.6540061167        8.9583024023       14.7771163203
  H        20.0569823874        7.9783759823       15.0276449073
  C        18.8851720552        9.6207143503       15.7324475283
  H        18.7041897507        9.1605112469       16.7019361618
  C        20.5712750395       15.6002636257       12.0437723059
  C        21.2348658901       14.3624066498       12.0771994458
  H        20.9945109809       13.6404877803       12.8557758147
  C        22.2025775510       14.0619926680       11.1196554399
  H        22.6969927138       13.0932337873       11.1729923830
  C        22.5517862097       14.9687977528       10.1001607763
  C        21.8841415030       16.2024181184       10.0917788150
  H        22.1173353955       16.9434194438        9.3318465948
  C        20.9075889535       16.5189572620       11.0433518045
  H        20.4009643773       17.4830235525       11.0105278252
  C        14.2858425104       16.0229086724       15.4255444901
  C        13.3034605977       15.1848331237       14.8785097637
  H        13.5971382294       14.3661257247       14.2246804743
  C        11.9520074453       15.4007798045       15.1654913982
  H        11.2198803205       14.7316702961       14.7213936368
  C        11.5315170484       16.4552847874       15.9927565725
  C        12.5344920694       17.2783047404       16.5369535498
  H        12.2650044429       18.1095558453       17.1871874912
  C        13.8885956660       17.0709011924       16.2669409606
  H        14.6429857556       17.7233381912       16.7052814012
  C        10.0535739189       16.7301634513       16.3083158063
  C         9.1099128872       15.7435170025       15.5939766551
  H         8.0679742634       15.9831866309       15.8445429556
  H         9.2923153521       14.7049812368       15.9025387088
  H         9.2088544289       15.8005716881       14.5012437503
  C         9.6894247928       18.1642465611       15.8529748175
  H        10.3010980889       18.9210665528       16.3612244765
  H         8.6359815198       18.3794159290       16.0792070385
  H         9.8379779195       18.2842576647       14.7711478777
  C         9.8212888582       16.6059707707       17.8333739882
  H        10.4426452510       17.3113282993       18.4006335235
  H        10.0566704935       15.5917133310       18.1845201265
  H         8.7705207601       16.8148078503       18.0778274862
  C        22.3428271859       22.4876458782       20.2375254143
  C        22.9350524248       23.2430336537       19.2180444353
  H        23.1909449873       22.7618153404       18.2752657136
  C        23.1990344759       24.6040369801       19.4108424309
  H        23.6598632716       25.1558002310       18.5960151803
  C        22.8811738078       25.2543998960       20.6123372428
  C        22.2729316562       24.4791100006       21.6184557617
  H        22.0003846793       24.9391248666       22.5666106491
  C        22.0067076466       23.1221555697       21.4459812151
  H        21.5445934290       22.5501449008       22.2489208238
  C        23.1716219503       26.7416103080       20.8613542692
  C        23.8210864007       27.4236100167       19.6420407322
  H        24.0044835785       28.4830413223       19.8651203824
  H        23.1749382861       27.3767464964       18.7540867466
  H        24.7874737490       26.9681298155       19.3859354464
  C        24.1362302119       26.8791914975       22.0648584415
  H        23.7126210790       26.4393053835       22.9772300730
  H        24.3467660269       27.9382884413       22.2686892100
  H        25.0904526712       26.3740513623       21.8624628293
  C        21.8491863534       27.4790475862       21.1822306761
  H        21.3529392180       27.0619729165       22.0683306877
  H        21.1435149111       27.4036142623       20.3432019184
  H        22.0418140048       28.5439044020       21.3739145451
  C        19.9627494666       24.3210284624       16.3650712634
  C        19.8930067842       24.7716562772       15.0411401007
  H        19.7927245281       24.0473336725       14.2333983507
  C        19.9486347452       26.1400381059       14.7548552237
  H        19.8902156580       26.4480864719       13.7143911556
  C        20.0763644135       27.1018582474       15.7683967331
  C        20.1416517296       26.6272410712       17.0921071729
  H        20.2372302569       27.3327976755       17.9161032179
  C        20.0899327709       25.2672299638       17.3956080824
  H        20.1511034170       24.9366647383       18.4311772757
  C        20.1590864308       28.6092558464       15.4861662173
  C        20.0290395338       28.9310152930       13.9849727655
  H        20.0881691752       30.0169956106       13.8335764692
  H        19.0674043249       28.5914107735       13.5761960242
  H        20.8349082732       28.4717706023       13.3962229996
  C        21.5255705330       29.1440027487       15.9806630694
  H        21.6607595287       28.9790041386       17.0578817068
  H        21.6038182273       30.2242203954       15.7947692253
  H        22.3543232046       28.6468435704       15.4586463979
  C        19.0226092657       29.3439381546       16.2373998398
  H        19.0857855751       29.1906769728       17.3230288733
  H        18.0371459648       28.9906769118       15.9041520062
  H        19.0794107235       30.4252291841       16.0507273432
  C        25.7007886872       14.4280722317       14.7993533890
  C        26.8055281304       14.8070192646       13.7830945740
  H        27.4513364115       13.9414607260       13.5797233048
  H        27.4353976518       15.6189189817       14.1714440763
  H        26.3816341324       15.1399436319       12.8264325332
  C        24.8418722503       13.2781848431       14.2195682840
  H        25.4707386909       12.4015610201       14.0097509797
  H        24.3513532598       13.5742962340       13.2829057600
  H        24.0590903349       12.9775078883       14.9299305449
  C        26.3819114848       13.9182295896       16.0840661000
  H        27.0101137890       13.0489994172       15.8471786530
  H        25.6457021302       13.6025227574       16.8366081431
  H        27.0317789669       14.6825573730       16.5322783646
  C        20.7732889824        8.7524492059       12.4934109122
  C        20.9347033456        9.5217268473       11.1683478759
  H        21.5522978233        8.9359536538       10.4746712119
  H        21.4304015018       10.4917175757       11.3147262287
  H        19.9678228751        9.7023180110       10.6790070766
  C        20.1082911863        7.3890633457       12.1838629255
  H        20.0012814680        6.7731226623       13.0862583624
  H        20.7148531342        6.8232605986       11.4632028531
  H        19.1077068283        7.5288205119       11.7528642436
  C        22.1820305341        8.5107549394       13.0883679563
  H        22.1373983237        7.9324307564       14.0205418180
  H        22.6852843579        9.4628812802       13.3068952563
  H        22.8065924581        7.9510257599       12.3783491973
  C        23.8619913519       10.0011819704       17.9717693547
  C        24.5822731109        9.6985309788       16.6357184861
  H        25.3169001433       10.4805166560       16.3988918579
  H        23.8761709455        9.6368547089       15.7969809196
  H        25.1129391620        8.7383039470       16.6978724082
  C        22.8411729821        8.8756401102       18.2709223054
  H        22.0891210046        8.7902177578       17.4753234477
  H        22.3103258061        9.0695702074       19.2130889533
  H        23.3537753266        7.9075736401       18.3563124303
  C        24.9145779775       10.0095939778       19.0968376595
  H        25.6847779827       10.7753628338       18.9305839446
  H        25.4200293949        9.0356099847       19.1367761787
  H        24.4590193398       10.1869456423       20.0806664757
  C        12.3084060048       21.5078566243       12.2201232159
  C        11.9916419543       22.9168607842       12.7784742123
  H        10.9240925754       23.1440081634       12.6522594215
  H        12.5613933182       23.6985964866       12.2592405163
  H        12.2340159596       22.9812510640       13.8481993599
  C        11.4107478348       20.4888288385       12.9470821004
  H        10.3557185058       20.7458021246       12.7838999333
  H        11.5886265588       20.4881510241       14.0311863188
  H        11.5644901432       19.4670738719       12.5737195357
  C        11.9703920626       21.4658715660       10.7099427117
  H        10.9068236398       21.6916088493       10.5507045909
  H        12.1756432350       20.4725759412       10.2881504659
  H        12.5567549477       22.1990395062       10.1407089704
  C        23.6191720690       14.5879650633        9.0637668787
  C        23.8451446516       15.7001308882        8.0216850060
  H        24.1972686467       16.6315261720        8.4859663760
  H        22.9303459229       15.9219068298        7.4551585107
  H        24.6104233844       15.3808769158        7.3018326509
  C        23.1732848456       13.3073879778        8.3164399364
  H        23.9296943262       13.0160096064        7.5746413534
  H        22.2233050537       13.4703781518        7.7897055800
  H        23.0351313868       12.4611740951        9.0022593552
  C        24.9627825119       14.3180045304        9.7833193089
  H        25.3148223644       15.2166436906       10.3087433555
  H        25.7337683611       14.0264352298        9.0566588572
  H        24.8767033529       13.5095003977       10.5211262320

