349
Energy =  -1930.4210051990
 Au        19.9999967175       19.9999829439       19.9999870702
 Au        20.8899607922       20.9370649120       22.5630134178
 Au        19.8404190414       22.8507689343       20.3966869684
 Au        17.9422072367       20.9331890280       21.7814317738
 Au        22.5225081573       21.3315534264       20.2407107594
 Au        22.0834716001       18.4655982960       21.2655317245
 Au        24.2275353885       20.6856615940       22.7797747172
 Au        18.4585506551       20.2151572070       24.8760594979
 Au        22.3797141218       23.7539179364       22.4610270705
 Au        15.9751515373       18.6056388708       22.7820373090
 Au        19.2008358098       18.3930627764       22.2319275291
 Au        19.0540901028       24.4781166947       17.7365180677
 Au        16.7680713341       23.8845136127       20.5018880017
  S        16.1893553928       19.5716134362       24.9352573598
  S        24.5491641096       23.0128577219       23.0196209810
  S        19.1145300556       16.3139743056       23.5320852192
  S        24.1026111176       18.3298391226       22.6624585287
  S        17.2861793550       25.5354910912       18.8941552071
  S        24.5410927898       22.3757161648       19.2989089101
  S        20.7104873090       20.8946453004       25.0035598725
  S        20.3208045826       24.7450808649       21.8759188765
  S        16.1164365088       22.4785381774       22.2858580755
  C        19.7874727079       16.6814080531       25.2145896547
  H        20.8422434584       16.9585689292       25.1280161806
  H        19.2418127776       17.5738011901       25.5584830948
  C        19.9522658793       25.0260900914       27.8100733244
  H        18.9459376358       24.8502052904       27.4309594289
  C        20.7050484410       22.6190991182       25.6596534383
  H        21.6639172997       23.0533288411       25.3454841015
  H        19.9152373806       23.1999808489       25.1718484266
  C        20.7656987085       26.2363476823       20.8781128079
  H        21.6796972717       26.0349779140       20.3102493439
  H        19.9448147375       26.3647382781       20.1592539120
  C        20.2845287949       26.2838984559       28.3234615014
  H        19.5319260952       27.0693218388       28.3403778785
  C        20.9000698020       23.9902653224       27.7788258366
  C        24.6867723547       23.2751657462       24.8422633959
  H        24.5545693367       24.3523768490       25.0082610434
  H        23.8693633545       22.7494720746       25.3460380661
  C        20.9088519569       27.5016643660       21.7468235316
  H        21.0025200172       28.3562462215       21.0570574271
  H        19.9788821972       27.6525377675       22.3129738911
  C        19.5940678603       15.5172531732       26.2046468422
  H        18.5346425945       15.2240036345       26.2215349730
  H        19.8289550845       15.9095914507       27.2077081477
  C        21.5714578727       26.5296799353       28.8138421925
  H        21.8267446914       27.5076310392       29.2166993548
  C        20.5645538247       22.6345640914       27.1935980844
  H        19.5404272844       22.3358957451       27.4599471128
  H        21.2371196762       21.8769907774       27.6200299844
  C        20.4607971366       14.3084393314       25.9323713263
  C        22.1048047671       12.0794355228       25.3911048796
  H        22.7385996098       11.2198638234       25.1834770788
  C        23.0084435062       27.2054503891       24.9345834594
  H        22.8484002396       26.9946332502       25.9909840852
  C        21.9153294400       27.2337359540       24.0616703246
  H        20.9143969274       27.0408453330       24.4452174838
  C        22.0879540657       27.4936404545       22.6937613491
  C        19.9300844729       13.1491215503       25.3473747375
  H        18.8699750019       13.1180063015       25.0995323124
  C        21.8288823404       14.3303159071       26.2498456073
  H        22.2576669223       15.2166773345       26.7176639240
  C        22.6453339094       13.2279831479       25.9804529586
  H        23.7027881968       13.2656220152       26.2355397605
  C        23.4805178993       17.9061933172       24.3447875053
  H        22.5682659319       18.4822071220       24.5367363762
  H        23.2113908683       16.8405105065       24.3140211052
  C        15.8928255480       25.4608378426       17.6882645930
  H        16.1865738126       26.0937569003       16.8407531973
  H        15.7919305162       24.4282447410       17.3364939932
  C        24.0892779346       17.7634507121       26.8057515759
  C        24.7359635681       16.7257346566       27.4963063201
  H        25.5807404483       16.2233173985       27.0263793720
  C        26.6023538277       24.1530930010       27.4417426796
  H        26.9425926125       24.9537999161       26.7864030709
  C        25.7036793412       21.9352228660       27.7357930754
  H        25.3416459603       20.9974273121       27.3146853426
  C        23.3882710892       27.7250478003       22.2158240228
  H        23.5430335085       27.9258934851       21.1554703734
  C        24.5438441757       18.1768229745       25.4226201055
  H        25.4727390545       17.6504499046       25.1625640291
  H        24.7756875058       19.2543091287       25.3993308603
  C        16.6043605582       23.4894495936       23.7509433673
  H        16.5595043094       22.8133363583       24.6162289242
  H        17.6400740342       23.8272085832       23.6318468363
  C        24.2976194150       27.4375960535       24.4457131000
  H        25.1503246137       27.4200983904       25.1218476435
  C        26.0472686855       22.7891940694       25.3726243870
  H        26.8532027883       23.3463653355       24.8750850213
  H        26.1736537852       21.7312673595       25.0981712303
  C        26.1359894379       22.9565292542       26.8737781132
  C        14.7073464984       16.2735996302       27.0123713039
  C        26.6361999438       24.3261970954       28.8292919136
  H        27.0065360053       25.2590883733       29.2494988982
  C        22.1899058481       24.2506344490       28.2708263629
  H        22.9407410649       23.4609920279       28.2543745848
  C        14.3703770351       16.3722623000       28.3716496345
  H        14.0870672997       17.3417099321       28.7789313857
  C        22.5252381999       25.5071297733       28.7855067992
  H        23.5310161219       25.6795847371       29.1636445713
  C        15.0873384602       13.8853945309       27.3303304707
  H        15.3633566626       12.9184879241       26.9146427836
  C        15.0657055514       15.0136471554       26.5047810385
  H        15.3244774076       14.9167658161       25.4505267434
  C        22.9972064870       18.3976832884       27.4245822284
  H        22.4749193113       19.1998653871       26.9013200279
  C        24.3095646065       16.3315089046       28.7695114381
  H        24.8249182103       15.5248692426       29.2869120369
  C        14.7338037127       17.4978904830       26.1237674419
  H        14.0189844957       18.2499674601       26.4850678452
  H        14.4301071756       17.2350183016       25.0991413150
  C        16.1432499381       18.1135655439       26.0685137940
  H        16.8728313686       17.3717046047       25.7268986308
  H        16.4559063463       18.4737133600       27.0569770971
  C        25.7344581482       22.1032981578       29.1238307069
  H        25.3972303376       21.2963994964       29.7713594939
  C        22.5666611333       18.0034799067       28.6952447308
  H        21.7185280671       18.5064169984       29.1559095300
  C        15.9925281525       25.5493531452       25.1083344884
  C        15.3613311259       25.3676686422       26.3493438223
  H        14.6046523929       24.5907947429       26.4496431410
  C        24.0219957387       24.1341325682       19.1094162896
  H        22.9604026505       24.1658410164       18.8388074624
  H        24.1278724524       24.5749268289       20.1115818011
  C        14.5717813921       25.9361826769       18.3155746374
  H        14.3592499183       25.3036867678       19.1915696140
  H        14.6806162566       26.9660897845       18.6817440574
  C        13.4381931876       25.8505403744       17.3162985846
  C        20.7428416549       12.0428439199       25.0782073338
  H        20.3121888534       11.1529069875       24.6233439414
  C        26.1998111626       23.3015058401       29.6757774266
  H        26.2265757449       23.4332980335       30.7553161287
  C        16.9684729612       26.5541917145       24.9991576994
  H        17.4716482275       26.7013321431       24.0439015574
  C        15.6444381009       24.6815053623       23.9199549171
  H        14.6169026220       24.3042742985       24.0160307734
  H        15.6781664210       25.2786564356       22.9958506402
  C        24.4843300730       27.6960263092       23.0827408508
  H        25.4841174785       27.8770184439       22.6933059525
  C        23.2214168318       16.9687858807       29.3732837309
  H        22.8854630467       16.6621570003       30.3615215733
  C        14.7509241606       13.9987866695       28.6834409049
  H        14.7662813482       13.1216933189       29.3267306357
  C        15.6833794599       26.1734041673       27.4465884690
  H        15.1779272311       26.0204683714       28.3978576229
  C        24.5241773438       26.3611553180       18.0290724956
  C        23.2890972369       26.7839426285       17.5066363602
  H        22.5920166890       26.0424853616       17.1134323306
  C        25.0597496845       28.6915200689       18.5183020669
  H        25.7557611059       29.4294475573       18.9120060323
  C        16.6472988380       27.1787400811       27.3194834319
  H        16.8909430864       27.8136040090       28.1689956850
  C        25.4006977196       27.3343426656       18.5348023062
  H        26.3599534807       27.0210059419       18.9443106755
  C        24.8777406271       24.8901709373       18.0792126389
  H        25.9421498386       24.7661153620       18.3212304385
  H        24.7187972637       24.4203082631       17.0956551794
  C        14.3903426649       15.2465524896       29.2017508600
  H        14.1228083810       15.3434739313       30.2518273981
  C        23.8269722267       29.0986228346       17.9986863404
  H        23.5582393434       30.1527509835       17.9865638708
  C        22.9427353251       28.1385664047       17.4935400788
  H        21.9783707030       28.4418301161       17.0892224161
  C        12.9337538896       26.9995204386       16.6879887772
  H        13.3483197318       27.9719265749       16.9496915846
  C        17.2921469160       27.3642173223       26.0916196194
  H        18.0455087893       28.1420982505       25.9828540314
  C        11.3734669363       25.6647538237       15.4003102897
  H        10.5750099798       25.5925735613       14.6649787205
  C        11.8687478167       24.5107128654       16.0184937484
  H        11.4547514750       23.5364744343       15.7661486224
  C        12.8914956160       24.6034326354       16.9670081291
  H        13.2769593432       23.7005280094       17.4410700083
  C        11.9090760703       26.9109598704       15.7389396930
  H        11.5293403552       27.8142954551       15.2662863755
 Au        19.1100398973       19.0629047451       17.4369577869
 Au        20.1595718991       17.1491977484       19.6032931894
 Au        22.0577909668       19.0667794400       18.2185464022
 Au        17.4774878004       18.6684155641       19.7592655300
 Au        17.9165209197       21.5343666804       18.7344433960
 Au        15.7724586870       19.3143000052       17.2201957574
 Au        21.5414607816       19.7848190196       15.1239261026
 Au        17.6202774908       16.2460446685       17.5389496841
 Au        24.0248481186       21.3943360422       17.2179490684
 Au        20.7991633966       21.6069061712       17.7680542589
 Au        20.9459092355       15.5218475966       22.2634549167
 Au        23.2319219562       16.1154491917       19.4980890413
  S        23.8106503657       20.4283517724       15.0647359348
  S        15.4508293144       16.9871055209       16.9803508195
  S        20.8854679460       23.6859856703       16.4678895405
  S        15.8973885401       21.6701203168       17.3375192493
  S        22.7138179668       14.4644705008       21.1058238936
  S        15.4589037310       17.6242572715       20.7010768138
  S        19.2895182223       19.1053252525       14.9964247201
  S        19.6791863410       15.2548860967       18.1240647061
  S        23.8835544138       17.5214273745       17.7141180789
  C        20.2125260560       23.3185567916       14.7853801339
  H        19.1577569606       23.0413927052       14.8719627714
  H        20.7581800900       22.4261551526       14.4415047926
  C        20.0477342795       14.9738498115       12.1899244284
  H        21.0540506118       15.1497370473       12.5690575817
  C        19.2949567473       17.3808695384       14.3403436747
  H        18.3360808940       16.9466285061       14.6544958975
  H        20.0847623481       16.7999832419       14.8281469987
  C        19.2342818785       13.7636252895       19.1218771829
  H        18.3202822400       13.9649935876       19.6897388934
  H        20.0551640927       13.6352263484       19.8407362010
  C        19.7154454090       13.7160356447       11.6765758902
  H        20.4680568993       12.9306180977       11.6596445405
  C        19.0999452399       16.0096926155       12.2211601699
  C        15.3132315972       16.7247942278       15.1577078592
  H        15.4454427067       15.6475852528       14.9917025320
  H        16.1306340484       17.2504984428       14.6539350852
  C        19.0911399929       12.4983001565       18.2531717140
  H        18.9974530533       11.6437186431       18.9429367512
  H        20.0211016837       12.3474227089       17.6870136142
  C        20.4059155111       24.4827230396       13.7953271655
  H        21.4653471922       24.7759453170       13.7784288354
  H        20.1710353206       24.0903568521       12.7922762844
  C        18.4285311093       13.4702823238       11.1861523503
  H        18.1732422862       12.4923242815       10.7833142374
  C        19.4354489454       17.3653980945       12.8063959289
  H        20.4595768630       17.6640473939       12.5400369095
  H        18.7628999486       18.1229810643       12.3799465050
  C        19.5391901213       25.6915371646       14.0676088704
  C        17.8951932976       27.9205390048       14.6088832105
  H        17.2614055135       28.7801171528       14.8165051844
  C        16.9915504926       12.7945107338       15.0653931425
  H        17.1515927670       13.0053344236       14.0089941780
  C        18.0846537306       12.7662298880       15.9383250560
  H        19.0855848266       12.9591136075       15.5547765009
  C        17.9120386126       12.5063228658       17.3062325252
  C        20.0699319610       26.8508414375       14.6526056993
  H        21.1300429975       26.8819458169       14.9004389811
  C        18.1711040170       25.6696439403       13.7501263483
  H        17.7423205966       24.7832801423       13.2823108516
  C        17.3546762234       26.7719879825       14.0195283191
  H        16.2972210051       26.7343528216       13.7644451021
  C        16.5194834537       22.0937668260       15.6551890053
  H        17.4317317625       21.5177510537       15.4632401786
  H        16.7886103145       23.1594502824       15.6859523022
  C        24.1071873389       14.5391128150       22.3116957439
  H        23.8134265275       13.9062145982       23.1592201242
  H        24.2080758216       15.5717051163       22.6634704139
  C        15.9107223259       22.2365026062       13.1942252382
  C        15.2640403811       23.2742217561       12.5036652111
  H        14.4192664466       23.7766336912       12.9735967026
  C        13.3976937076       15.8468363081       12.5582123105
  H        13.0574617641       15.0461312218       13.2135540439
  C        14.2963158315       18.0647309271       12.2641675027
  H        14.6583232154       19.0025372170       12.6852776951
  C        16.6117102353       12.2749297102       17.7841517305
  H        16.4569473722       12.0740811562       18.8445036170
  C        15.4561489230       21.8231306632       14.5773585069
  H        14.5272525955       22.3495033597       14.8374183516
  H        15.2243081705       20.7456474983       14.6006377886
  C        23.3956321967       16.5105177067       16.2490372096
  H        23.4404999889       17.1866239548       15.3837517159
  H        22.3599173627       16.1727527180       16.3681351643
  C        15.7023766948       12.5623848971       15.5542720316
  H        14.8496725862       12.5798748148       14.8781369489
  C        13.9527377888       17.2107542677       14.6273326596
  H        13.1468069293       16.6535800282       15.1248708694
  H        13.8263351768       18.2686781229       14.9017845295
  C        13.8640068544       17.0434208830       13.1261768773
  C        25.2926744067       23.7263775468       12.9876173630
  C        13.3638508025       15.6737345765       11.1706653882
  H        12.9935368379       14.7408335107       10.7504602408
  C        17.8101037362       15.7493339923       11.7291674334
  H        17.0592774133       16.5389807120       11.7455981333
  C        25.6296269825       23.6277126438       11.6283377770
  H        25.9129479205       22.6582604011       11.2210397289
  C        17.4747573838       14.4928453393       11.2144762726
  H        16.4689866935       14.3203792042       10.8363410892
  C        24.9126871321       26.1145506110       12.6696712086
  H        24.6366809961       27.0814655642       13.0853630200
  C        24.9343237596       24.9863086347       13.4952166841
  H        24.6755242629       25.0832125459       14.5494852732
  C        17.0027925265       21.6022721575       12.5753931792
  H        17.5250816064       20.8000874297       13.0986544973
  C        15.6904311490       23.6684469176       11.2304621649
  H        15.1750798632       24.4750895132       10.7130596235
  C        25.2661990412       22.5020882950       13.8762258368
  H        25.9810272046       21.7500091995       13.5149276851
  H        25.5698911658       22.7649260235       14.9008640928
  C        23.8567618265       21.8864031048       13.9314746320
  H        23.1271724833       22.6282581518       14.2730831931
  H        23.5440978674       21.5262430964       12.9430196498
  C        14.2655496372       17.8966527818       10.8761313979
  H        14.6027550769       18.7035600956       10.2285994828
  C        17.4333379375       21.9964707205       11.3047299466
  H        18.2814686918       21.4935361956       10.8440624113
  C        24.0074736035       14.4506316227       14.8916487713
  C        24.6386565247       14.6323232824       13.6506238148
  H        25.3953090262       15.4092151421       13.5503068428
  C        15.9779986259       15.8658426074       20.8905642842
  H        17.0395925636       15.8341310320       21.1611720884
  H        15.8721123315       15.4250459320       19.8884011911
  C        25.4282402773       14.0637614614       21.6844124073
  H        25.6407368539       14.6962432389       20.8083997479
  H        25.3193613371       13.0338599003       21.3182358518
  C        26.5618166861       14.1494224558       22.6836922276
  C        19.2571684087       27.9571129489       14.9217591323
  H        19.6878226346       28.8470478380       15.3766270796
  C        13.8002137988       16.6984378357       10.3241785956
  H        13.7734645583       16.5666353109        9.2446416492
  C        23.0315403477       13.4457743074       15.0008071053
  H        22.5284011378       13.2986024745       15.9560743434
  C        24.3555678378       15.3184793023       16.0800332581
  H        25.3831057829       15.6957051739       15.9839377309
  H        24.3218237875       14.7213088964       17.0041222153
  C        15.5156475802       12.3039367780       16.9172399361
  H        14.5158592132       12.1229600145       17.3066770678
  C        16.7785803867       23.0311721876       10.6266931568
  H        17.1145317326       23.3377953688        9.6384538600
  C        25.2490928188       26.0011978260       11.3165626394
  H        25.2337536181       26.8783179306       10.6732928293
  C        24.3165949432       13.8266224585       12.5533641085
  H        24.8220555271       13.9795547352       11.6020907850
  C        15.4758146484       13.6388267777       21.9709173870
  C        16.7108917478       13.2160268176       22.4933546487
  H        17.4079690623       13.9574865571       22.8865618709
  C        14.9402357290       11.3084577413       21.4816766274
  H        14.2442243277       10.5705278792       21.0879736348
  C        23.3527160779       12.8212629773       12.6804793256
  H        23.1090771179       12.1864032478       11.8309663503
  C        14.5992982207       12.6656348905       21.4651889021
  H        13.6400488216       12.9789808702       21.0556749170
  C        15.1222534920       15.1098177246       21.9207768765
  H        14.0578405674       15.2338662304       21.6787690331
  H        15.2812086941       15.5796696680       22.9043381016
  C        25.6096963122       24.7534348722       10.7982582718
  H        25.8772217127       24.6564782937        9.7481790787
  C        16.1730127774       10.9013549267       22.0013035152
  H        16.4417449539        9.8472278062       22.0134221227
  C        17.0572571305       11.8614078581       22.5064547411
  H        18.0216205518       11.5581383505       22.9107752816
  C        27.0662449453       13.0004171684       23.3119822982
  H        26.6516509009       12.0280167736       23.0503164769
  C        22.7078912634       12.6357403036       13.9083522342
  H        21.9545457945       11.8578436143       14.0170968974
  C        28.6265467755       14.3352260674       24.5996653160
  H        29.4250155884       14.4074134343       25.3349861021
  C        28.1312801182       15.4892326516       23.9814143453
  H        28.5452600291       16.4634793411       24.2337639746
  C        27.1084966203       15.3965535203       23.0329298078
  H        26.7230546557       16.2994501405       22.5588365613
  C        28.0909061345       13.0890357831       24.2610415289
  H        28.4706462581       12.1857018572       24.7337036700
